;;
;; Generated by CHARMM-GUI FF-Converter
;;
;; Correspondance:
;; jul316@lehigh.edu or wonpil@lehigh.edu
;;
;; GROMACS topology file for CLA
;;

;; This gromacs .itp file was edited
;; as /Users/jessicaflowers/Desktop/winter_rotation/GROMACS/1hck_110/1hck_110/gromacs/CLA.itp
;; by /Users/jessicaflowers/Desktop/winter_rotation/GROMACS/1hck_110/1hck_110/gromacs/dynamics-parameter-generation.py
;; on 2026-01-24 08:39:12.213132



[ moleculetype ]
; name	nrexcl
CLA	     1

[ atoms ]
; nr	type	resnr	residu	atom	cgnr	charge	mass
     1        CLA     50      CLA    CLA      1    -1.000000    35.4500   ; qtot -1.000

#ifdef POSRES
[ position_restraints ]
    1     1    POSRES_FC_CLA    POSRES_FC_CLA    POSRES_FC_CLA
#endif
