;;
;; Generated by CHARMM-GUI FF-Converter
;;
;; Correspondance:
;; jul316@lehigh.edu or wonpil@lehigh.edu
;;
;; GROMACS topology file for SOD
;;

;; This gromacs .itp file was edited
;; as /Users/jessicaflowers/Desktop/winter_rotation/GROMACS/1hck_110/1hck_110/gromacs/SOD.itp
;; by /Users/jessicaflowers/Desktop/winter_rotation/GROMACS/1hck_110/1hck_110/gromacs/dynamics-parameter-generation.py
;; on 2026-01-24 08:39:12.208964



[ moleculetype ]
; name	nrexcl
SOD	     1

[ atoms ]
; nr	type	resnr	residu	atom	cgnr	charge	mass
     1        SOD      1      SOD    SOD      1     1.000000    22.9898   ; qtot  1.000

#ifdef POSRES
[ position_restraints ]
    1     1    POSRES_FC_SOD    POSRES_FC_SOD    POSRES_FC_SOD
#endif
